+ 0.5 1 2 cbr 1000 ------- 2 1.0 2.0 0 0
- 0.5 1 2 cbr 1000 ------- 2 1.0 2.0 0 0
+ 0.5008 1 2 cbr 1000 ------- 2 1.0 2.0 1 1
- 0.5008 1 2 cbr 1000 ------- 2 1.0 2.0 1 1
+ 0.5016 1 2 cbr 1000 ------- 2 1.0 2.0 2 2
- 0.5016 1 2 cbr 1000 ------- 2 1.0 2.0 2 2
+ 0.5024 1 2 cbr 1000 ------- 2 1.0 2.0 3 3
- 0.5024 1 2 cbr 1000 ------- 2 1.0 2.0 3 3
+ 0.5032 1 2 cbr 1000 ------- 2 1.0 2.0 4 4
- 0.5032 1 2 cbr 1000 ------- 2 1.0 2.0 4 4
+ 0.504 1 2 cbr 1000 ------- 2 1.0 2.0 5 5
- 0.504 1 2 cbr 1000 ------- 2 1.0 2.0 5 5
+ 0.5048 1 2 cbr 1000 ------- 2 1.0 2.0 6 6
- 0.5048 1 2 cbr 1000 ------- 2 1.0 2.0 6 6
+ 0.5056 1 2 cbr 1000 ------- 2 1.0 2.0 7 7
- 0.5056 1 2 cbr 1000 ------- 2 1.0 2.0 7 7
+ 0.5064 1 2 cbr 1000 ------- 2 1.0 2.0 8 8
- 0.5064 1 2 cbr 1000 ------- 2 1.0 2.0 8 8
+ 0.5072 1 2 cbr 1000 ------- 2 1.0 2.0 9 9
- 0.5072 1 2 cbr 1000 ------- 2 1.0 2.0 9 9
+ 0.508 1 2 cbr 1000 ------- 2 1.0 2.0 10 10
- 0.508 1 2 cbr 1000 ------- 2 1.0 2.0 10 10
+ 0.5088 1 2 cbr 1000 ------- 2 1.0 2.0 11 11
- 0.5088 1 2 cbr 1000 ------- 2 1.0 2.0 11 11
+ 0.5096 1 2 cbr 1000 ------- 2 1.0 2.0 12 12
- 0.5096 1 2 cbr 1000 ------- 2 1.0 2.0 12 12
+ 0.5104 1 2 cbr 1000 ------- 2 1.0 2.0 13 13
- 0.5104 1 2 cbr 1000 ------- 2 1.0 2.0 13 13
r 0.5108 1 2 cbr 1000 ------- 2 1.0 2.0 0 0
+ 0.5112 1 2 cbr 1000 ------- 2 1.0 2.0 14 14
- 0.5112 1 2 cbr 1000 ------- 2 1.0 2.0 14 14
r 0.5116 1 2 cbr 1000 ------- 2 1.0 2.0 1 1
+ 0.512 1 2 cbr 1000 ------- 2 1.0 2.0 15 15
- 0.512 1 2 cbr 1000 ------- 2 1.0 2.0 15 15
r 0.5124 1 2 cbr 1000 ------- 2 1.0 2.0 2 2
+ 0.5128 1 2 cbr 1000 ------- 2 1.0 2.0 16 16
- 0.5128 1 2 cbr 1000 ------- 2 1.0 2.0 16 16
r 0.5132 1 2 cbr 1000 ------- 2 1.0 2.0 3 3
+ 0.5136 1 2 cbr 1000 ------- 2 1.0 2.0 17 17
- 0.5136 1 2 cbr 1000 ------- 2 1.0 2.0 17 17
r 0.514 1 2 cbr 1000 ------- 2 1.0 2.0 4 4
+ 0.5144 1 2 cbr 1000 ------- 2 1.0 2.0 18 18
- 0.5144 1 2 cbr 1000 ------- 2 1.0 2.0 18 18
r 0.5148 1 2 cbr 1000 ------- 2 1.0 2.0 5 5
+ 0.5152 1 2 cbr 1000 ------- 2 1.0 2.0 19 19
- 0.5152 1 2 cbr 1000 ------- 2 1.0 2.0 19 19
r 0.5156 1 2 cbr 1000 ------- 2 1.0 2.0 6 6
+ 0.516 1 2 cbr 1000 ------- 2 1.0 2.0 20 20
- 0.516 1 2 cbr 1000 ------- 2 1.0 2.0 20 20
r 0.5164 1 2 cbr 1000 ------- 2 1.0 2.0 7 7
+ 0.5168 1 2 cbr 1000 ------- 2 1.0 2.0 21 21
- 0.5168 1 2 cbr 1000 ------- 2 1.0 2.0 21 21
r 0.5172 1 2 cbr 1000 ------- 2 1.0 2.0 8 8
+ 0.5176 1 2 cbr 1000 ------- 2 1.0 2.0 22 22
- 0.5176 1 2 cbr 1000 ------- 2 1.0 2.0 22 22
r 0.518 1 2 cbr 1000 ------- 2 1.0 2.0 9 9
+ 0.5184 1 2 cbr 1000 ------- 2 1.0 2.0 23 23
- 0.5184 1 2 cbr 1000 ------- 2 1.0 2.0 23 23
r 0.5188 1 2 cbr 1000 ------- 2 1.0 2.0 10 10
+ 0.5192 1 2 cbr 1000 ------- 2 1.0 2.0 24 24
- 0.5192 1 2 cbr 1000 ------- 2 1.0 2.0 24 24
r 0.5196 1 2 cbr 1000 ------- 2 1.0 2.0 11 11
+ 0.52 1 2 cbr 1000 ------- 2 1.0 2.0 25 25
- 0.52 1 2 cbr 1000 ------- 2 1.0 2.0 25 25
r 0.5204 1 2 cbr 1000 ------- 2 1.0 2.0 12 12
+ 0.5208 1 2 cbr 1000 ------- 2 1.0 2.0 26 26
- 0.5208 1 2 cbr 1000 ------- 2 1.0 2.0 26 26
r 0.5212 1 2 cbr 1000 ------- 2 1.0 2.0 13 13
+ 0.5216 1 2 cbr 1000 ------- 2 1.0 2.0 27 27
- 0.5216 1 2 cbr 1000 ------- 2 1.0 2.0 27 27
r 0.522 1 2 cbr 1000 ------- 2 1.0 2.0 14 14
+ 0.5224 1 2 cbr 1000 ------- 2 1.0 2.0 28 28
- 0.5224 1 2 cbr 1000 ------- 2 1.0 2.0 28 28
r 0.5228 1 2 cbr 1000 ------- 2 1.0 2.0 15 15
+ 0.5232 1 2 cbr 1000 ------- 2 1.0 2.0 29 29
- 0.5232 1 2 cbr 1000 ------- 2 1.0 2.0 29 29
r 0.5236 1 2 cbr 1000 ------- 2 1.0 2.0 16 16
+ 0.524 1 2 cbr 1000 ------- 2 1.0 2.0 30 30
- 0.524 1 2 cbr 1000 ------- 2 1.0 2.0 30 30
r 0.5244 1 2 cbr 1000 ------- 2 1.0 2.0 17 17
+ 0.5248 1 2 cbr 1000 ------- 2 1.0 2.0 31 31
- 0.5248 1 2 cbr 1000 ------- 2 1.0 2.0 31 31
r 0.5252 1 2 cbr 1000 ------- 2 1.0 2.0 18 18
+ 0.5256 1 2 cbr 1000 ------- 2 1.0 2.0 32 32
- 0.5256 1 2 cbr 1000 ------- 2 1.0 2.0 32 32
r 0.526 1 2 cbr 1000 ------- 2 1.0 2.0 19 19
+ 0.5264 1 2 cbr 1000 ------- 2 1.0 2.0 33 33
- 0.5264 1 2 cbr 1000 ------- 2 1.0 2.0 33 33
r 0.5268 1 2 cbr 1000 ------- 2 1.0 2.0 20 20
+ 0.5272 1 2 cbr 1000 ------- 2 1.0 2.0 34 34
- 0.5272 1 2 cbr 1000 ------- 2 1.0 2.0 34 34
r 0.5276 1 2 cbr 1000 ------- 2 1.0 2.0 21 21
+ 0.528 1 2 cbr 1000 ------- 2 1.0 2.0 35 35
- 0.528 1 2 cbr 1000 ------- 2 1.0 2.0 35 35
r 0.5284 1 2 cbr 1000 ------- 2 1.0 2.0 22 22
+ 0.5288 1 2 cbr 1000 ------- 2 1.0 2.0 36 36
- 0.5288 1 2 cbr 1000 ------- 2 1.0 2.0 36 36
r 0.5292 1 2 cbr 1000 ------- 2 1.0 2.0 23 23
+ 0.5296 1 2 cbr 1000 ------- 2 1.0 2.0 37 37
- 0.5296 1 2 cbr 1000 ------- 2 1.0 2.0 37 37
r 0.53 1 2 cbr 1000 ------- 2 1.0 2.0 24 24
+ 0.5304 1 2 cbr 1000 ------- 2 1.0 2.0 38 38
- 0.5304 1 2 cbr 1000 ------- 2 1.0 2.0 38 38
r 0.5308 1 2 cbr 1000 ------- 2 1.0 2.0 25 25
+ 0.5312 1 2 cbr 1000 ------- 2 1.0 2.0 39 39
- 0.5312 1 2 cbr 1000 ------- 2 1.0 2.0 39 39
r 0.5316 1 2 cbr 1000 ------- 2 1.0 2.0 26 26
+ 0.532 1 2 cbr 1000 ------- 2 1.0 2.0 40 40
- 0.532 1 2 cbr 1000 ------- 2 1.0 2.0 40 40
r 0.5324 1 2 cbr 1000 ------- 2 1.0 2.0 27 27
+ 0.5328 1 2 cbr 1000 ------- 2 1.0 2.0 41 41
- 0.5328 1 2 cbr 1000 ------- 2 1.0 2.0 41 41
r 0.5332 1 2 cbr 1000 ------- 2 1.0 2.0 28 28
+ 0.5336 1 2 cbr 1000 ------- 2 1.0 2.0 42 42
- 0.5336 1 2 cbr 1000 ------- 2 1.0 2.0 42 42
r 0.534 1 2 cbr 1000 ------- 2 1.0 2.0 29 29
+ 0.5344 1 2 cbr 1000 ------- 2 1.0 2.0 43 43
- 0.5344 1 2 cbr 1000 ------- 2 1.0 2.0 43 43
r 0.5348 1 2 cbr 1000 ------- 2 1.0 2.0 30 30
+ 0.5352 1 2 cbr 1000 ------- 2 1.0 2.0 44 44
- 0.5352 1 2 cbr 1000 ------- 2 1.0 2.0 44 44
r 0.5356 1 2 cbr 1000 ------- 2 1.0 2.0 31 31
+ 0.536 1 2 cbr 1000 ------- 2 1.0 2.0 45 45
- 0.536 1 2 cbr 1000 ------- 2 1.0 2.0 45 45
r 0.5364 1 2 cbr 1000 ------- 2 1.0 2.0 32 32
+ 0.5368 1 2 cbr 1000 ------- 2 1.0 2.0 46 46
- 0.5368 1 2 cbr 1000 ------- 2 1.0 2.0 46 46
r 0.5372 1 2 cbr 1000 ------- 2 1.0 2.0 33 33
+ 0.5376 1 2 cbr 1000 ------- 2 1.0 2.0 47 47
- 0.5376 1 2 cbr 1000 ------- 2 1.0 2.0 47 47
r 0.538 1 2 cbr 1000 ------- 2 1.0 2.0 34 34
+ 0.5384 1 2 cbr 1000 ------- 2 1.0 2.0 48 48
- 0.5384 1 2 cbr 1000 ------- 2 1.0 2.0 48 48
r 0.5388 1 2 cbr 1000 ------- 2 1.0 2.0 35 35
+ 0.5392 1 2 cbr 1000 ------- 2 1.0 2.0 49 49
- 0.5392 1 2 cbr 1000 ------- 2 1.0 2.0 49 49
r 0.5396 1 2 cbr 1000 ------- 2 1.0 2.0 36 36
+ 0.54 1 2 cbr 1000 ------- 2 1.0 2.0 50 50
- 0.54 1 2 cbr 1000 ------- 2 1.0 2.0 50 50
r 0.5404 1 2 cbr 1000 ------- 2 1.0 2.0 37 37
+ 0.5408 1 2 cbr 1000 ------- 2 1.0 2.0 51 51
- 0.5408 1 2 cbr 1000 ------- 2 1.0 2.0 51 51
r 0.5412 1 2 cbr 1000 ------- 2 1.0 2.0 38 38
+ 0.5416 1 2 cbr 1000 ------- 2 1.0 2.0 52 52
- 0.5416 1 2 cbr 1000 ------- 2 1.0 2.0 52 52
r 0.542 1 2 cbr 1000 ------- 2 1.0 2.0 39 39
+ 0.5424 1 2 cbr 1000 ------- 2 1.0 2.0 53 53
- 0.5424 1 2 cbr 1000 ------- 2 1.0 2.0 53 53
r 0.5428 1 2 cbr 1000 ------- 2 1.0 2.0 40 40
+ 0.5432 1 2 cbr 1000 ------- 2 1.0 2.0 54 54
- 0.5432 1 2 cbr 1000 ------- 2 1.0 2.0 54 54
r 0.5436 1 2 cbr 1000 ------- 2 1.0 2.0 41 41
+ 0.544 1 2 cbr 1000 ------- 2 1.0 2.0 55 55
- 0.544 1 2 cbr 1000 ------- 2 1.0 2.0 55 55
r 0.5444 1 2 cbr 1000 ------- 2 1.0 2.0 42 42
+ 0.5448 1 2 cbr 1000 ------- 2 1.0 2.0 56 56
- 0.5448 1 2 cbr 1000 ------- 2 1.0 2.0 56 56
r 0.5452 1 2 cbr 1000 ------- 2 1.0 2.0 43 43
+ 0.5456 1 2 cbr 1000 ------- 2 1.0 2.0 57 57
- 0.5456 1 2 cbr 1000 ------- 2 1.0 2.0 57 57
r 0.546 1 2 cbr 1000 ------- 2 1.0 2.0 44 44
+ 0.5464 1 2 cbr 1000 ------- 2 1.0 2.0 58 58
- 0.5464 1 2 cbr 1000 ------- 2 1.0 2.0 58 58
r 0.5468 1 2 cbr 1000 ------- 2 1.0 2.0 45 45
+ 0.5472 1 2 cbr 1000 ------- 2 1.0 2.0 59 59
- 0.5472 1 2 cbr 1000 ------- 2 1.0 2.0 59 59
r 0.5476 1 2 cbr 1000 ------- 2 1.0 2.0 46 46
+ 0.548 1 2 cbr 1000 ------- 2 1.0 2.0 60 60
- 0.548 1 2 cbr 1000 ------- 2 1.0 2.0 60 60
r 0.5484 1 2 cbr 1000 ------- 2 1.0 2.0 47 47
+ 0.5488 1 2 cbr 1000 ------- 2 1.0 2.0 61 61
- 0.5488 1 2 cbr 1000 ------- 2 1.0 2.0 61 61
r 0.5492 1 2 cbr 1000 ------- 2 1.0 2.0 48 48
+ 0.5496 1 2 cbr 1000 ------- 2 1.0 2.0 62 62
- 0.5496 1 2 cbr 1000 ------- 2 1.0 2.0 62 62
r 0.55 1 2 cbr 1000 ------- 2 1.0 2.0 49 49
+ 0.5504 1 2 cbr 1000 ------- 2 1.0 2.0 63 63
- 0.5504 1 2 cbr 1000 ------- 2 1.0 2.0 63 63
r 0.5508 1 2 cbr 1000 ------- 2 1.0 2.0 50 50
+ 0.5512 1 2 cbr 1000 ------- 2 1.0 2.0 64 64
- 0.5512 1 2 cbr 1000 ------- 2 1.0 2.0 64 64
r 0.5516 1 2 cbr 1000 ------- 2 1.0 2.0 51 51
+ 0.552 1 2 cbr 1000 ------- 2 1.0 2.0 65 65
- 0.552 1 2 cbr 1000 ------- 2 1.0 2.0 65 65
r 0.5524 1 2 cbr 1000 ------- 2 1.0 2.0 52 52
+ 0.5528 1 2 cbr 1000 ------- 2 1.0 2.0 66 66
- 0.5528 1 2 cbr 1000 ------- 2 1.0 2.0 66 66
r 0.5532 1 2 cbr 1000 ------- 2 1.0 2.0 53 53
+ 0.5536 1 2 cbr 1000 ------- 2 1.0 2.0 67 67
- 0.5536 1 2 cbr 1000 ------- 2 1.0 2.0 67 67
r 0.554 1 2 cbr 1000 ------- 2 1.0 2.0 54 54
+ 0.5544 1 2 cbr 1000 ------- 2 1.0 2.0 68 68
- 0.5544 1 2 cbr 1000 ------- 2 1.0 2.0 68 68
r 0.5548 1 2 cbr 1000 ------- 2 1.0 2.0 55 55
+ 0.5552 1 2 cbr 1000 ------- 2 1.0 2.0 69 69
- 0.5552 1 2 cbr 1000 ------- 2 1.0 2.0 69 69
r 0.5556 1 2 cbr 1000 ------- 2 1.0 2.0 56 56
+ 0.556 1 2 cbr 1000 ------- 2 1.0 2.0 70 70
- 0.556 1 2 cbr 1000 ------- 2 1.0 2.0 70 70
r 0.5564 1 2 cbr 1000 ------- 2 1.0 2.0 57 57
+ 0.5568 1 2 cbr 1000 ------- 2 1.0 2.0 71 71
- 0.5568 1 2 cbr 1000 ------- 2 1.0 2.0 71 71
r 0.5572 1 2 cbr 1000 ------- 2 1.0 2.0 58 58
+ 0.5576 1 2 cbr 1000 ------- 2 1.0 2.0 72 72
- 0.5576 1 2 cbr 1000 ------- 2 1.0 2.0 72 72
r 0.558 1 2 cbr 1000 ------- 2 1.0 2.0 59 59
+ 0.5584 1 2 cbr 1000 ------- 2 1.0 2.0 73 73
- 0.5584 1 2 cbr 1000 ------- 2 1.0 2.0 73 73
r 0.5588 1 2 cbr 1000 ------- 2 1.0 2.0 60 60
+ 0.5592 1 2 cbr 1000 ------- 2 1.0 2.0 74 74
- 0.5592 1 2 cbr 1000 ------- 2 1.0 2.0 74 74
r 0.5596 1 2 cbr 1000 ------- 2 1.0 2.0 61 61
+ 0.56 1 2 cbr 1000 ------- 2 1.0 2.0 75 75
- 0.56 1 2 cbr 1000 ------- 2 1.0 2.0 75 75
r 0.5604 1 2 cbr 1000 ------- 2 1.0 2.0 62 62
+ 0.5608 1 2 cbr 1000 ------- 2 1.0 2.0 76 76
- 0.5608 1 2 cbr 1000 ------- 2 1.0 2.0 76 76
r 0.5612 1 2 cbr 1000 ------- 2 1.0 2.0 63 63
+ 0.5616 1 2 cbr 1000 ------- 2 1.0 2.0 77 77
- 0.5616 1 2 cbr 1000 ------- 2 1.0 2.0 77 77
r 0.562 1 2 cbr 1000 ------- 2 1.0 2.0 64 64
+ 0.5624 1 2 cbr 1000 ------- 2 1.0 2.0 78 78
- 0.5624 1 2 cbr 1000 ------- 2 1.0 2.0 78 78
r 0.5628 1 2 cbr 1000 ------- 2 1.0 2.0 65 65
+ 0.5632 1 2 cbr 1000 ------- 2 1.0 2.0 79 79
- 0.5632 1 2 cbr 1000 ------- 2 1.0 2.0 79 79
r 0.5636 1 2 cbr 1000 ------- 2 1.0 2.0 66 66
+ 0.564 1 2 cbr 1000 ------- 2 1.0 2.0 80 80
- 0.564 1 2 cbr 1000 ------- 2 1.0 2.0 80 80
r 0.5644 1 2 cbr 1000 ------- 2 1.0 2.0 67 67
+ 0.5648 1 2 cbr 1000 ------- 2 1.0 2.0 81 81
- 0.5648 1 2 cbr 1000 ------- 2 1.0 2.0 81 81
r 0.5652 1 2 cbr 1000 ------- 2 1.0 2.0 68 68
+ 0.5656 1 2 cbr 1000 ------- 2 1.0 2.0 82 82
- 0.5656 1 2 cbr 1000 ------- 2 1.0 2.0 82 82
r 0.566 1 2 cbr 1000 ------- 2 1.0 2.0 69 69
+ 0.5664 1 2 cbr 1000 ------- 2 1.0 2.0 83 83
- 0.5664 1 2 cbr 1000 ------- 2 1.0 2.0 83 83
r 0.5668 1 2 cbr 1000 ------- 2 1.0 2.0 70 70
+ 0.5672 1 2 cbr 1000 ------- 2 1.0 2.0 84 84
- 0.5672 1 2 cbr 1000 ------- 2 1.0 2.0 84 84
r 0.5676 1 2 cbr 1000 ------- 2 1.0 2.0 71 71
+ 0.568 1 2 cbr 1000 ------- 2 1.0 2.0 85 85
- 0.568 1 2 cbr 1000 ------- 2 1.0 2.0 85 85
r 0.5684 1 2 cbr 1000 ------- 2 1.0 2.0 72 72
+ 0.5688 1 2 cbr 1000 ------- 2 1.0 2.0 86 86
- 0.5688 1 2 cbr 1000 ------- 2 1.0 2.0 86 86
r 0.5692 1 2 cbr 1000 ------- 2 1.0 2.0 73 73
+ 0.5696 1 2 cbr 1000 ------- 2 1.0 2.0 87 87
- 0.5696 1 2 cbr 1000 ------- 2 1.0 2.0 87 87
r 0.57 1 2 cbr 1000 ------- 2 1.0 2.0 74 74
+ 0.5704 1 2 cbr 1000 ------- 2 1.0 2.0 88 88
- 0.5704 1 2 cbr 1000 ------- 2 1.0 2.0 88 88
r 0.5708 1 2 cbr 1000 ------- 2 1.0 2.0 75 75
+ 0.5712 1 2 cbr 1000 ------- 2 1.0 2.0 89 89
- 0.5712 1 2 cbr 1000 ------- 2 1.0 2.0 89 89
r 0.5716 1 2 cbr 1000 ------- 2 1.0 2.0 76 76
+ 0.572 1 2 cbr 1000 ------- 2 1.0 2.0 90 90
- 0.572 1 2 cbr 1000 ------- 2 1.0 2.0 90 90
r 0.5724 1 2 cbr 1000 ------- 2 1.0 2.0 77 77
+ 0.5728 1 2 cbr 1000 ------- 2 1.0 2.0 91 91
- 0.5728 1 2 cbr 1000 ------- 2 1.0 2.0 91 91
r 0.5732 1 2 cbr 1000 ------- 2 1.0 2.0 78 78
+ 0.5736 1 2 cbr 1000 ------- 2 1.0 2.0 92 92
- 0.5736 1 2 cbr 1000 ------- 2 1.0 2.0 92 92
r 0.574 1 2 cbr 1000 ------- 2 1.0 2.0 79 79
+ 0.5744 1 2 cbr 1000 ------- 2 1.0 2.0 93 93
- 0.5744 1 2 cbr 1000 ------- 2 1.0 2.0 93 93
r 0.5748 1 2 cbr 1000 ------- 2 1.0 2.0 80 80
+ 0.5752 1 2 cbr 1000 ------- 2 1.0 2.0 94 94
- 0.5752 1 2 cbr 1000 ------- 2 1.0 2.0 94 94
r 0.5756 1 2 cbr 1000 ------- 2 1.0 2.0 81 81
+ 0.576 1 2 cbr 1000 ------- 2 1.0 2.0 95 95
- 0.576 1 2 cbr 1000 ------- 2 1.0 2.0 95 95
r 0.5764 1 2 cbr 1000 ------- 2 1.0 2.0 82 82
+ 0.5768 1 2 cbr 1000 ------- 2 1.0 2.0 96 96
- 0.5768 1 2 cbr 1000 ------- 2 1.0 2.0 96 96
r 0.5772 1 2 cbr 1000 ------- 2 1.0 2.0 83 83
+ 0.5776 1 2 cbr 1000 ------- 2 1.0 2.0 97 97
- 0.5776 1 2 cbr 1000 ------- 2 1.0 2.0 97 97
r 0.578 1 2 cbr 1000 ------- 2 1.0 2.0 84 84
+ 0.5784 1 2 cbr 1000 ------- 2 1.0 2.0 98 98
- 0.5784 1 2 cbr 1000 ------- 2 1.0 2.0 98 98
r 0.5788 1 2 cbr 1000 ------- 2 1.0 2.0 85 85
+ 0.5792 1 2 cbr 1000 ------- 2 1.0 2.0 99 99
- 0.5792 1 2 cbr 1000 ------- 2 1.0 2.0 99 99
r 0.5796 1 2 cbr 1000 ------- 2 1.0 2.0 86 86
+ 0.58 1 2 cbr 1000 ------- 2 1.0 2.0 100 100
- 0.58 1 2 cbr 1000 ------- 2 1.0 2.0 100 100
r 0.5804 1 2 cbr 1000 ------- 2 1.0 2.0 87 87
+ 0.5808 1 2 cbr 1000 ------- 2 1.0 2.0 101 101
- 0.5808 1 2 cbr 1000 ------- 2 1.0 2.0 101 101
r 0.5812 1 2 cbr 1000 ------- 2 1.0 2.0 88 88
+ 0.5816 1 2 cbr 1000 ------- 2 1.0 2.0 102 102
- 0.5816 1 2 cbr 1000 ------- 2 1.0 2.0 102 102
r 0.582 1 2 cbr 1000 ------- 2 1.0 2.0 89 89
+ 0.5824 1 2 cbr 1000 ------- 2 1.0 2.0 103 103
- 0.5824 1 2 cbr 1000 ------- 2 1.0 2.0 103 103
r 0.5828 1 2 cbr 1000 ------- 2 1.0 2.0 90 90
+ 0.5832 1 2 cbr 1000 ------- 2 1.0 2.0 104 104
- 0.5832 1 2 cbr 1000 ------- 2 1.0 2.0 104 104
r 0.5836 1 2 cbr 1000 ------- 2 1.0 2.0 91 91
+ 0.584 1 2 cbr 1000 ------- 2 1.0 2.0 105 105
- 0.584 1 2 cbr 1000 ------- 2 1.0 2.0 105 105
r 0.5844 1 2 cbr 1000 ------- 2 1.0 2.0 92 92
+ 0.5848 1 2 cbr 1000 ------- 2 1.0 2.0 106 106
- 0.5848 1 2 cbr 1000 ------- 2 1.0 2.0 106 106
r 0.5852 1 2 cbr 1000 ------- 2 1.0 2.0 93 93
+ 0.5856 1 2 cbr 1000 ------- 2 1.0 2.0 107 107
- 0.5856 1 2 cbr 1000 ------- 2 1.0 2.0 107 107
r 0.586 1 2 cbr 1000 ------- 2 1.0 2.0 94 94
+ 0.5864 1 2 cbr 1000 ------- 2 1.0 2.0 108 108
- 0.5864 1 2 cbr 1000 ------- 2 1.0 2.0 108 108
r 0.5868 1 2 cbr 1000 ------- 2 1.0 2.0 95 95
+ 0.5872 1 2 cbr 1000 ------- 2 1.0 2.0 109 109
- 0.5872 1 2 cbr 1000 ------- 2 1.0 2.0 109 109
r 0.5876 1 2 cbr 1000 ------- 2 1.0 2.0 96 96
+ 0.588 1 2 cbr 1000 ------- 2 1.0 2.0 110 110
- 0.588 1 2 cbr 1000 ------- 2 1.0 2.0 110 110
r 0.5884 1 2 cbr 1000 ------- 2 1.0 2.0 97 97
+ 0.5888 1 2 cbr 1000 ------- 2 1.0 2.0 111 111
- 0.5888 1 2 cbr 1000 ------- 2 1.0 2.0 111 111
r 0.5892 1 2 cbr 1000 ------- 2 1.0 2.0 98 98
+ 0.5896 1 2 cbr 1000 ------- 2 1.0 2.0 112 112
- 0.5896 1 2 cbr 1000 ------- 2 1.0 2.0 112 112
r 0.59 1 2 cbr 1000 ------- 2 1.0 2.0 99 99
+ 0.5904 1 2 cbr 1000 ------- 2 1.0 2.0 113 113
- 0.5904 1 2 cbr 1000 ------- 2 1.0 2.0 113 113
r 0.5908 1 2 cbr 1000 ------- 2 1.0 2.0 100 100
+ 0.5912 1 2 cbr 1000 ------- 2 1.0 2.0 114 114
- 0.5912 1 2 cbr 1000 ------- 2 1.0 2.0 114 114
r 0.5916 1 2 cbr 1000 ------- 2 1.0 2.0 101 101
+ 0.592 1 2 cbr 1000 ------- 2 1.0 2.0 115 115
- 0.592 1 2 cbr 1000 ------- 2 1.0 2.0 115 115
r 0.5924 1 2 cbr 1000 ------- 2 1.0 2.0 102 102
+ 0.5928 1 2 cbr 1000 ------- 2 1.0 2.0 116 116
- 0.5928 1 2 cbr 1000 ------- 2 1.0 2.0 116 116
r 0.5932 1 2 cbr 1000 ------- 2 1.0 2.0 103 103
+ 0.5936 1 2 cbr 1000 ------- 2 1.0 2.0 117 117
- 0.5936 1 2 cbr 1000 ------- 2 1.0 2.0 117 117
r 0.594 1 2 cbr 1000 ------- 2 1.0 2.0 104 104
+ 0.5944 1 2 cbr 1000 ------- 2 1.0 2.0 118 118
- 0.5944 1 2 cbr 1000 ------- 2 1.0 2.0 118 118
r 0.5948 1 2 cbr 1000 ------- 2 1.0 2.0 105 105
+ 0.5952 1 2 cbr 1000 ------- 2 1.0 2.0 119 119
- 0.5952 1 2 cbr 1000 ------- 2 1.0 2.0 119 119
r 0.5956 1 2 cbr 1000 ------- 2 1.0 2.0 106 106
+ 0.596 1 2 cbr 1000 ------- 2 1.0 2.0 120 120
- 0.596 1 2 cbr 1000 ------- 2 1.0 2.0 120 120
r 0.5964 1 2 cbr 1000 ------- 2 1.0 2.0 107 107
+ 0.5968 1 2 cbr 1000 ------- 2 1.0 2.0 121 121
- 0.5968 1 2 cbr 1000 ------- 2 1.0 2.0 121 121
r 0.5972 1 2 cbr 1000 ------- 2 1.0 2.0 108 108
+ 0.5976 1 2 cbr 1000 ------- 2 1.0 2.0 122 122
- 0.5976 1 2 cbr 1000 ------- 2 1.0 2.0 122 122
r 0.598 1 2 cbr 1000 ------- 2 1.0 2.0 109 109
+ 0.5984 1 2 cbr 1000 ------- 2 1.0 2.0 123 123
- 0.5984 1 2 cbr 1000 ------- 2 1.0 2.0 123 123
r 0.5988 1 2 cbr 1000 ------- 2 1.0 2.0 110 110
+ 0.5992 1 2 cbr 1000 ------- 2 1.0 2.0 124 124
- 0.5992 1 2 cbr 1000 ------- 2 1.0 2.0 124 124
r 0.5996 1 2 cbr 1000 ------- 2 1.0 2.0 111 111
+ 0.6 1 2 cbr 1000 ------- 2 1.0 2.0 125 125
- 0.6 1 2 cbr 1000 ------- 2 1.0 2.0 125 125
r 0.6004 1 2 cbr 1000 ------- 2 1.0 2.0 112 112
+ 0.6008 1 2 cbr 1000 ------- 2 1.0 2.0 126 126
- 0.6008 1 2 cbr 1000 ------- 2 1.0 2.0 126 126
r 0.6012 1 2 cbr 1000 ------- 2 1.0 2.0 113 113
+ 0.6016 1 2 cbr 1000 ------- 2 1.0 2.0 127 127
- 0.6016 1 2 cbr 1000 ------- 2 1.0 2.0 127 127
r 0.602 1 2 cbr 1000 ------- 2 1.0 2.0 114 114
+ 0.6024 1 2 cbr 1000 ------- 2 1.0 2.0 128 128
- 0.6024 1 2 cbr 1000 ------- 2 1.0 2.0 128 128
r 0.6028 1 2 cbr 1000 ------- 2 1.0 2.0 115 115
+ 0.6032 1 2 cbr 1000 ------- 2 1.0 2.0 129 129
- 0.6032 1 2 cbr 1000 ------- 2 1.0 2.0 129 129
r 0.6036 1 2 cbr 1000 ------- 2 1.0 2.0 116 116
+ 0.604 1 2 cbr 1000 ------- 2 1.0 2.0 130 130
- 0.604 1 2 cbr 1000 ------- 2 1.0 2.0 130 130
r 0.6044 1 2 cbr 1000 ------- 2 1.0 2.0 117 117
+ 0.6048 1 2 cbr 1000 ------- 2 1.0 2.0 131 131
- 0.6048 1 2 cbr 1000 ------- 2 1.0 2.0 131 131
r 0.6052 1 2 cbr 1000 ------- 2 1.0 2.0 118 118
+ 0.6056 1 2 cbr 1000 ------- 2 1.0 2.0 132 132
- 0.6056 1 2 cbr 1000 ------- 2 1.0 2.0 132 132
r 0.606 1 2 cbr 1000 ------- 2 1.0 2.0 119 119
+ 0.6064 1 2 cbr 1000 ------- 2 1.0 2.0 133 133
- 0.6064 1 2 cbr 1000 ------- 2 1.0 2.0 133 133
r 0.6068 1 2 cbr 1000 ------- 2 1.0 2.0 120 120
+ 0.6072 1 2 cbr 1000 ------- 2 1.0 2.0 134 134
- 0.6072 1 2 cbr 1000 ------- 2 1.0 2.0 134 134
r 0.6076 1 2 cbr 1000 ------- 2 1.0 2.0 121 121
+ 0.608 1 2 cbr 1000 ------- 2 1.0 2.0 135 135
- 0.608 1 2 cbr 1000 ------- 2 1.0 2.0 135 135
r 0.6084 1 2 cbr 1000 ------- 2 1.0 2.0 122 122
+ 0.6088 1 2 cbr 1000 ------- 2 1.0 2.0 136 136
- 0.6088 1 2 cbr 1000 ------- 2 1.0 2.0 136 136
r 0.6092 1 2 cbr 1000 ------- 2 1.0 2.0 123 123
+ 0.6096 1 2 cbr 1000 ------- 2 1.0 2.0 137 137
- 0.6096 1 2 cbr 1000 ------- 2 1.0 2.0 137 137
r 0.61 1 2 cbr 1000 ------- 2 1.0 2.0 124 124
+ 0.6104 1 2 cbr 1000 ------- 2 1.0 2.0 138 138
- 0.6104 1 2 cbr 1000 ------- 2 1.0 2.0 138 138
r 0.6108 1 2 cbr 1000 ------- 2 1.0 2.0 125 125
+ 0.6112 1 2 cbr 1000 ------- 2 1.0 2.0 139 139
- 0.6112 1 2 cbr 1000 ------- 2 1.0 2.0 139 139
r 0.6116 1 2 cbr 1000 ------- 2 1.0 2.0 126 126
+ 0.612 1 2 cbr 1000 ------- 2 1.0 2.0 140 140
- 0.612 1 2 cbr 1000 ------- 2 1.0 2.0 140 140
r 0.6124 1 2 cbr 1000 ------- 2 1.0 2.0 127 127
+ 0.6128 1 2 cbr 1000 ------- 2 1.0 2.0 141 141
- 0.6128 1 2 cbr 1000 ------- 2 1.0 2.0 141 141
r 0.6132 1 2 cbr 1000 ------- 2 1.0 2.0 128 128
+ 0.6136 1 2 cbr 1000 ------- 2 1.0 2.0 142 142
- 0.6136 1 2 cbr 1000 ------- 2 1.0 2.0 142 142
r 0.614 1 2 cbr 1000 ------- 2 1.0 2.0 129 129
+ 0.6144 1 2 cbr 1000 ------- 2 1.0 2.0 143 143
- 0.6144 1 2 cbr 1000 ------- 2 1.0 2.0 143 143
r 0.6148 1 2 cbr 1000 ------- 2 1.0 2.0 130 130
+ 0.6152 1 2 cbr 1000 ------- 2 1.0 2.0 144 144
- 0.6152 1 2 cbr 1000 ------- 2 1.0 2.0 144 144
r 0.6156 1 2 cbr 1000 ------- 2 1.0 2.0 131 131
+ 0.616 1 2 cbr 1000 ------- 2 1.0 2.0 145 145
- 0.616 1 2 cbr 1000 ------- 2 1.0 2.0 145 145
r 0.6164 1 2 cbr 1000 ------- 2 1.0 2.0 132 132
+ 0.6168 1 2 cbr 1000 ------- 2 1.0 2.0 146 146
- 0.6168 1 2 cbr 1000 ------- 2 1.0 2.0 146 146
r 0.6172 1 2 cbr 1000 ------- 2 1.0 2.0 133 133
+ 0.6176 1 2 cbr 1000 ------- 2 1.0 2.0 147 147
- 0.6176 1 2 cbr 1000 ------- 2 1.0 2.0 147 147
r 0.618 1 2 cbr 1000 ------- 2 1.0 2.0 134 134
+ 0.6184 1 2 cbr 1000 ------- 2 1.0 2.0 148 148
- 0.6184 1 2 cbr 1000 ------- 2 1.0 2.0 148 148
r 0.6188 1 2 cbr 1000 ------- 2 1.0 2.0 135 135
+ 0.6192 1 2 cbr 1000 ------- 2 1.0 2.0 149 149
- 0.6192 1 2 cbr 1000 ------- 2 1.0 2.0 149 149
r 0.6196 1 2 cbr 1000 ------- 2 1.0 2.0 136 136
+ 0.62 1 2 cbr 1000 ------- 2 1.0 2.0 150 150
- 0.62 1 2 cbr 1000 ------- 2 1.0 2.0 150 150
r 0.6204 1 2 cbr 1000 ------- 2 1.0 2.0 137 137
+ 0.6208 1 2 cbr 1000 ------- 2 1.0 2.0 151 151
- 0.6208 1 2 cbr 1000 ------- 2 1.0 2.0 151 151
r 0.6212 1 2 cbr 1000 ------- 2 1.0 2.0 138 138
+ 0.6216 1 2 cbr 1000 ------- 2 1.0 2.0 152 152
- 0.6216 1 2 cbr 1000 ------- 2 1.0 2.0 152 152
r 0.622 1 2 cbr 1000 ------- 2 1.0 2.0 139 139
+ 0.6224 1 2 cbr 1000 ------- 2 1.0 2.0 153 153
- 0.6224 1 2 cbr 1000 ------- 2 1.0 2.0 153 153
r 0.6228 1 2 cbr 1000 ------- 2 1.0 2.0 140 140
+ 0.6232 1 2 cbr 1000 ------- 2 1.0 2.0 154 154
- 0.6232 1 2 cbr 1000 ------- 2 1.0 2.0 154 154
r 0.6236 1 2 cbr 1000 ------- 2 1.0 2.0 141 141
+ 0.624 1 2 cbr 1000 ------- 2 1.0 2.0 155 155
- 0.624 1 2 cbr 1000 ------- 2 1.0 2.0 155 155
r 0.6244 1 2 cbr 1000 ------- 2 1.0 2.0 142 142
+ 0.6248 1 2 cbr 1000 ------- 2 1.0 2.0 156 156
- 0.6248 1 2 cbr 1000 ------- 2 1.0 2.0 156 156
r 0.6252 1 2 cbr 1000 ------- 2 1.0 2.0 143 143
+ 0.6256 1 2 cbr 1000 ------- 2 1.0 2.0 157 157
- 0.6256 1 2 cbr 1000 ------- 2 1.0 2.0 157 157
r 0.626 1 2 cbr 1000 ------- 2 1.0 2.0 144 144
+ 0.6264 1 2 cbr 1000 ------- 2 1.0 2.0 158 158
- 0.6264 1 2 cbr 1000 ------- 2 1.0 2.0 158 158
r 0.6268 1 2 cbr 1000 ------- 2 1.0 2.0 145 145
+ 0.6272 1 2 cbr 1000 ------- 2 1.0 2.0 159 159
- 0.6272 1 2 cbr 1000 ------- 2 1.0 2.0 159 159
r 0.6276 1 2 cbr 1000 ------- 2 1.0 2.0 146 146
+ 0.628 1 2 cbr 1000 ------- 2 1.0 2.0 160 160
- 0.628 1 2 cbr 1000 ------- 2 1.0 2.0 160 160
r 0.6284 1 2 cbr 1000 ------- 2 1.0 2.0 147 147
+ 0.6288 1 2 cbr 1000 ------- 2 1.0 2.0 161 161
- 0.6288 1 2 cbr 1000 ------- 2 1.0 2.0 161 161
r 0.6292 1 2 cbr 1000 ------- 2 1.0 2.0 148 148
+ 0.6296 1 2 cbr 1000 ------- 2 1.0 2.0 162 162
- 0.6296 1 2 cbr 1000 ------- 2 1.0 2.0 162 162
r 0.63 1 2 cbr 1000 ------- 2 1.0 2.0 149 149
+ 0.6304 1 2 cbr 1000 ------- 2 1.0 2.0 163 163
- 0.6304 1 2 cbr 1000 ------- 2 1.0 2.0 163 163
r 0.6308 1 2 cbr 1000 ------- 2 1.0 2.0 150 150
+ 0.6312 1 2 cbr 1000 ------- 2 1.0 2.0 164 164
- 0.6312 1 2 cbr 1000 ------- 2 1.0 2.0 164 164
r 0.6316 1 2 cbr 1000 ------- 2 1.0 2.0 151 151
+ 0.632 1 2 cbr 1000 ------- 2 1.0 2.0 165 165
- 0.632 1 2 cbr 1000 ------- 2 1.0 2.0 165 165
r 0.6324 1 2 cbr 1000 ------- 2 1.0 2.0 152 152
+ 0.6328 1 2 cbr 1000 ------- 2 1.0 2.0 166 166
- 0.6328 1 2 cbr 1000 ------- 2 1.0 2.0 166 166
r 0.6332 1 2 cbr 1000 ------- 2 1.0 2.0 153 153
+ 0.6336 1 2 cbr 1000 ------- 2 1.0 2.0 167 167
- 0.6336 1 2 cbr 1000 ------- 2 1.0 2.0 167 167
r 0.634 1 2 cbr 1000 ------- 2 1.0 2.0 154 154
+ 0.6344 1 2 cbr 1000 ------- 2 1.0 2.0 168 168
- 0.6344 1 2 cbr 1000 ------- 2 1.0 2.0 168 168
r 0.6348 1 2 cbr 1000 ------- 2 1.0 2.0 155 155
+ 0.6352 1 2 cbr 1000 ------- 2 1.0 2.0 169 169
- 0.6352 1 2 cbr 1000 ------- 2 1.0 2.0 169 169
r 0.6356 1 2 cbr 1000 ------- 2 1.0 2.0 156 156
+ 0.636 1 2 cbr 1000 ------- 2 1.0 2.0 170 170
- 0.636 1 2 cbr 1000 ------- 2 1.0 2.0 170 170
r 0.6364 1 2 cbr 1000 ------- 2 1.0 2.0 157 157
+ 0.6368 1 2 cbr 1000 ------- 2 1.0 2.0 171 171
- 0.6368 1 2 cbr 1000 ------- 2 1.0 2.0 171 171
r 0.6372 1 2 cbr 1000 ------- 2 1.0 2.0 158 158
+ 0.6376 1 2 cbr 1000 ------- 2 1.0 2.0 172 172
- 0.6376 1 2 cbr 1000 ------- 2 1.0 2.0 172 172
r 0.638 1 2 cbr 1000 ------- 2 1.0 2.0 159 159
+ 0.6384 1 2 cbr 1000 ------- 2 1.0 2.0 173 173
- 0.6384 1 2 cbr 1000 ------- 2 1.0 2.0 173 173
r 0.6388 1 2 cbr 1000 ------- 2 1.0 2.0 160 160
+ 0.6392 1 2 cbr 1000 ------- 2 1.0 2.0 174 174
- 0.6392 1 2 cbr 1000 ------- 2 1.0 2.0 174 174
r 0.6396 1 2 cbr 1000 ------- 2 1.0 2.0 161 161
+ 0.64 1 2 cbr 1000 ------- 2 1.0 2.0 175 175
- 0.64 1 2 cbr 1000 ------- 2 1.0 2.0 175 175
r 0.6404 1 2 cbr 1000 ------- 2 1.0 2.0 162 162
+ 0.6408 1 2 cbr 1000 ------- 2 1.0 2.0 176 176
- 0.6408 1 2 cbr 1000 ------- 2 1.0 2.0 176 176
r 0.6412 1 2 cbr 1000 ------- 2 1.0 2.0 163 163
+ 0.6416 1 2 cbr 1000 ------- 2 1.0 2.0 177 177
- 0.6416 1 2 cbr 1000 ------- 2 1.0 2.0 177 177
r 0.642 1 2 cbr 1000 ------- 2 1.0 2.0 164 164
+ 0.6424 1 2 cbr 1000 ------- 2 1.0 2.0 178 178
- 0.6424 1 2 cbr 1000 ------- 2 1.0 2.0 178 178
r 0.6428 1 2 cbr 1000 ------- 2 1.0 2.0 165 165
+ 0.6432 1 2 cbr 1000 ------- 2 1.0 2.0 179 179
- 0.6432 1 2 cbr 1000 ------- 2 1.0 2.0 179 179
r 0.6436 1 2 cbr 1000 ------- 2 1.0 2.0 166 166
+ 0.644 1 2 cbr 1000 ------- 2 1.0 2.0 180 180
- 0.644 1 2 cbr 1000 ------- 2 1.0 2.0 180 180
r 0.6444 1 2 cbr 1000 ------- 2 1.0 2.0 167 167
+ 0.6448 1 2 cbr 1000 ------- 2 1.0 2.0 181 181
- 0.6448 1 2 cbr 1000 ------- 2 1.0 2.0 181 181
r 0.6452 1 2 cbr 1000 ------- 2 1.0 2.0 168 168
+ 0.6456 1 2 cbr 1000 ------- 2 1.0 2.0 182 182
- 0.6456 1 2 cbr 1000 ------- 2 1.0 2.0 182 182
r 0.646 1 2 cbr 1000 ------- 2 1.0 2.0 169 169
+ 0.6464 1 2 cbr 1000 ------- 2 1.0 2.0 183 183
- 0.6464 1 2 cbr 1000 ------- 2 1.0 2.0 183 183
r 0.6468 1 2 cbr 1000 ------- 2 1.0 2.0 170 170
+ 0.6472 1 2 cbr 1000 ------- 2 1.0 2.0 184 184
- 0.6472 1 2 cbr 1000 ------- 2 1.0 2.0 184 184
r 0.6476 1 2 cbr 1000 ------- 2 1.0 2.0 171 171
+ 0.648 1 2 cbr 1000 ------- 2 1.0 2.0 185 185
- 0.648 1 2 cbr 1000 ------- 2 1.0 2.0 185 185
r 0.6484 1 2 cbr 1000 ------- 2 1.0 2.0 172 172
+ 0.6488 1 2 cbr 1000 ------- 2 1.0 2.0 186 186
- 0.6488 1 2 cbr 1000 ------- 2 1.0 2.0 186 186
r 0.6492 1 2 cbr 1000 ------- 2 1.0 2.0 173 173
+ 0.6496 1 2 cbr 1000 ------- 2 1.0 2.0 187 187
- 0.6496 1 2 cbr 1000 ------- 2 1.0 2.0 187 187
r 0.65 1 2 cbr 1000 ------- 2 1.0 2.0 174 174
+ 0.6504 1 2 cbr 1000 ------- 2 1.0 2.0 188 188
- 0.6504 1 2 cbr 1000 ------- 2 1.0 2.0 188 188
r 0.6508 1 2 cbr 1000 ------- 2 1.0 2.0 175 175
+ 0.6512 1 2 cbr 1000 ------- 2 1.0 2.0 189 189
- 0.6512 1 2 cbr 1000 ------- 2 1.0 2.0 189 189
r 0.6516 1 2 cbr 1000 ------- 2 1.0 2.0 176 176
+ 0.652 1 2 cbr 1000 ------- 2 1.0 2.0 190 190
- 0.652 1 2 cbr 1000 ------- 2 1.0 2.0 190 190
r 0.6524 1 2 cbr 1000 ------- 2 1.0 2.0 177 177
+ 0.6528 1 2 cbr 1000 ------- 2 1.0 2.0 191 191
- 0.6528 1 2 cbr 1000 ------- 2 1.0 2.0 191 191
r 0.6532 1 2 cbr 1000 ------- 2 1.0 2.0 178 178
+ 0.6536 1 2 cbr 1000 ------- 2 1.0 2.0 192 192
- 0.6536 1 2 cbr 1000 ------- 2 1.0 2.0 192 192
r 0.654 1 2 cbr 1000 ------- 2 1.0 2.0 179 179
+ 0.6544 1 2 cbr 1000 ------- 2 1.0 2.0 193 193
- 0.6544 1 2 cbr 1000 ------- 2 1.0 2.0 193 193
r 0.6548 1 2 cbr 1000 ------- 2 1.0 2.0 180 180
+ 0.6552 1 2 cbr 1000 ------- 2 1.0 2.0 194 194
- 0.6552 1 2 cbr 1000 ------- 2 1.0 2.0 194 194
r 0.6556 1 2 cbr 1000 ------- 2 1.0 2.0 181 181
+ 0.656 1 2 cbr 1000 ------- 2 1.0 2.0 195 195
- 0.656 1 2 cbr 1000 ------- 2 1.0 2.0 195 195
r 0.6564 1 2 cbr 1000 ------- 2 1.0 2.0 182 182
+ 0.6568 1 2 cbr 1000 ------- 2 1.0 2.0 196 196
- 0.6568 1 2 cbr 1000 ------- 2 1.0 2.0 196 196
r 0.6572 1 2 cbr 1000 ------- 2 1.0 2.0 183 183
+ 0.6576 1 2 cbr 1000 ------- 2 1.0 2.0 197 197
- 0.6576 1 2 cbr 1000 ------- 2 1.0 2.0 197 197
r 0.658 1 2 cbr 1000 ------- 2 1.0 2.0 184 184
+ 0.6584 1 2 cbr 1000 ------- 2 1.0 2.0 198 198
- 0.6584 1 2 cbr 1000 ------- 2 1.0 2.0 198 198
r 0.6588 1 2 cbr 1000 ------- 2 1.0 2.0 185 185
+ 0.6592 1 2 cbr 1000 ------- 2 1.0 2.0 199 199
- 0.6592 1 2 cbr 1000 ------- 2 1.0 2.0 199 199
r 0.6596 1 2 cbr 1000 ------- 2 1.0 2.0 186 186
+ 0.66 1 2 cbr 1000 ------- 2 1.0 2.0 200 200
- 0.66 1 2 cbr 1000 ------- 2 1.0 2.0 200 200
r 0.6604 1 2 cbr 1000 ------- 2 1.0 2.0 187 187
+ 0.6608 1 2 cbr 1000 ------- 2 1.0 2.0 201 201
- 0.6608 1 2 cbr 1000 ------- 2 1.0 2.0 201 201
r 0.6612 1 2 cbr 1000 ------- 2 1.0 2.0 188 188
+ 0.6616 1 2 cbr 1000 ------- 2 1.0 2.0 202 202
- 0.6616 1 2 cbr 1000 ------- 2 1.0 2.0 202 202
r 0.662 1 2 cbr 1000 ------- 2 1.0 2.0 189 189
+ 0.6624 1 2 cbr 1000 ------- 2 1.0 2.0 203 203
- 0.6624 1 2 cbr 1000 ------- 2 1.0 2.0 203 203
r 0.6628 1 2 cbr 1000 ------- 2 1.0 2.0 190 190
+ 0.6632 1 2 cbr 1000 ------- 2 1.0 2.0 204 204
- 0.6632 1 2 cbr 1000 ------- 2 1.0 2.0 204 204
r 0.6636 1 2 cbr 1000 ------- 2 1.0 2.0 191 191
+ 0.664 1 2 cbr 1000 ------- 2 1.0 2.0 205 205
- 0.664 1 2 cbr 1000 ------- 2 1.0 2.0 205 205
r 0.6644 1 2 cbr 1000 ------- 2 1.0 2.0 192 192
+ 0.6648 1 2 cbr 1000 ------- 2 1.0 2.0 206 206
- 0.6648 1 2 cbr 1000 ------- 2 1.0 2.0 206 206
r 0.6652 1 2 cbr 1000 ------- 2 1.0 2.0 193 193
+ 0.6656 1 2 cbr 1000 ------- 2 1.0 2.0 207 207
- 0.6656 1 2 cbr 1000 ------- 2 1.0 2.0 207 207
r 0.666 1 2 cbr 1000 ------- 2 1.0 2.0 194 194
+ 0.6664 1 2 cbr 1000 ------- 2 1.0 2.0 208 208
- 0.6664 1 2 cbr 1000 ------- 2 1.0 2.0 208 208
r 0.6668 1 2 cbr 1000 ------- 2 1.0 2.0 195 195
+ 0.6672 1 2 cbr 1000 ------- 2 1.0 2.0 209 209
- 0.6672 1 2 cbr 1000 ------- 2 1.0 2.0 209 209
r 0.6676 1 2 cbr 1000 ------- 2 1.0 2.0 196 196
+ 0.668 1 2 cbr 1000 ------- 2 1.0 2.0 210 210
- 0.668 1 2 cbr 1000 ------- 2 1.0 2.0 210 210
r 0.6684 1 2 cbr 1000 ------- 2 1.0 2.0 197 197
+ 0.6688 1 2 cbr 1000 ------- 2 1.0 2.0 211 211
- 0.6688 1 2 cbr 1000 ------- 2 1.0 2.0 211 211
r 0.6692 1 2 cbr 1000 ------- 2 1.0 2.0 198 198
+ 0.6696 1 2 cbr 1000 ------- 2 1.0 2.0 212 212
- 0.6696 1 2 cbr 1000 ------- 2 1.0 2.0 212 212
r 0.67 1 2 cbr 1000 ------- 2 1.0 2.0 199 199
+ 0.6704 1 2 cbr 1000 ------- 2 1.0 2.0 213 213
- 0.6704 1 2 cbr 1000 ------- 2 1.0 2.0 213 213
r 0.6708 1 2 cbr 1000 ------- 2 1.0 2.0 200 200
+ 0.6712 1 2 cbr 1000 ------- 2 1.0 2.0 214 214
- 0.6712 1 2 cbr 1000 ------- 2 1.0 2.0 214 214
r 0.6716 1 2 cbr 1000 ------- 2 1.0 2.0 201 201
+ 0.672 1 2 cbr 1000 ------- 2 1.0 2.0 215 215
- 0.672 1 2 cbr 1000 ------- 2 1.0 2.0 215 215
r 0.6724 1 2 cbr 1000 ------- 2 1.0 2.0 202 202
+ 0.6728 1 2 cbr 1000 ------- 2 1.0 2.0 216 216
- 0.6728 1 2 cbr 1000 ------- 2 1.0 2.0 216 216
r 0.6732 1 2 cbr 1000 ------- 2 1.0 2.0 203 203
+ 0.6736 1 2 cbr 1000 ------- 2 1.0 2.0 217 217
- 0.6736 1 2 cbr 1000 ------- 2 1.0 2.0 217 217
r 0.674 1 2 cbr 1000 ------- 2 1.0 2.0 204 204
+ 0.6744 1 2 cbr 1000 ------- 2 1.0 2.0 218 218